s -t 0.065633625 -Hs 2 -Hd -1 -Ni 2 -Nx 340.00 -Ny 226.00 -Nz 15.00 -Ne -1.000000 -Nl RTR -Nw --- -Ma 0 -Md 0 -Ms 0 -Mt 0 -Is 2.255 -Id -1.255 -It OLSR -Il 48 -If 0 -Ii 0 -Iv 32 -P olsr -Pn 1 -Ps 0 [-Pt HELLO -Po 2 -Ph 0 -Pms 0] 
r -t 0.066853832 -Hs 1 -Hd -1 -Ni 1 -Nx 305.00 -Ny 277.00 -Nz 15.00 -Ne -1.000000 -Nl RTR -Nw --- -Ma 0 -Md ffffffff -Ms 2 -Mt 800 -Is 2.255 -Id -1.255 -It OLSR -Il 48 -If 0 -Ii 0 -Iv 32 -P olsr -Pn 1 -Ps 0 [-Pt HELLO -Po 2 -Ph 0 -Pms 0] 
r -t 0.066854087 -Hs 4 -Hd -1 -Ni 4 -Nx 476.00 -Ny 200.00 -Nz 15.00 -Ne -1.000000 -Nl RTR -Nw --- -Ma 0 -Md ffffffff -Ms 2 -Mt 800 -Is 2.255 -Id -1.255 -It OLSR -Il 48 -If 0 -Ii 0 -Iv 32 -P olsr -Pn 1 -Ps 0 [-Pt HELLO -Po 2 -Ph 0 -Pms 0] 
r -t 0.066854313 -Hs 3 -Hd -1 -Ni 3 -Nx 270.00 -Ny 32.00 -Nz 15.00 -Ne -1.000000 -Nl RTR -Nw --- -Ma 0 -Md ffffffff -Ms 2 -Mt 800 -Is 2.255 -Id -1.255 -It OLSR -Il 48 -If 0 -Ii 0 -Iv 32 -P olsr -Pn 1 -Ps 0 [-Pt HELLO -Po 2 -Ph 0 -Pms 0] 
r -t 0.066854635 -Hs 5 -Hd -1 -Ni 5 -Nx 628.00 -Ny 320.00 -Nz 15.00 -Ne -1.000000 -Nl RTR -Nw --- -Ma 0 -Md ffffffff -Ms 2 -Mt 800 -Is 2.255 -Id -1.255 -It OLSR -Il 48 -If 0 -Ii 0 -Iv 32 -P olsr -Pn 1 -Ps 0 [-Pt HELLO -Po 2 -Ph 0 -Pms 0] 
r -t 0.066854673 -Hs 6 -Hd -1 -Ni 6 -Nx 570.00 -Ny 440.00 -Nz 15.00 -Ne -1.000000 -Nl RTR -Nw --- -Ma 0 -Md ffffffff -Ms 2 -Mt 800 -Is 2.255 -Id -1.255 -It OLSR -Il 48 -If 0 -Ii 0 -Iv 32 -P olsr -Pn 1 -Ps 0 [-Pt HELLO -Po 2 -Ph 0 -Pms 0] 
r -t 0.066854677 -Hs 0 -Hd -1 -Ni 0 -Nx 160.00 -Ny 485.00 -Nz 15.00 -Ne -1.000000 -Nl RTR -Nw --- -Ma 0 -Md ffffffff -Ms 2 -Mt 800 -Is 2.255 -Id -1.255 -It OLSR -Il 48 -If 0 -Ii 0 -Iv 32 -P olsr -Pn 1 -Ps 0 [-Pt HELLO -Po 2 -Ph 0 -Pms 0] 
r -t 0.066855319 -Hs 7 -Hd -1 -Ni 7 -Nx 780.00 -Ny 480.00 -Nz 15.00 -Ne -1.000000 -Nl RTR -Nw --- -Ma 0 -Md ffffffff -Ms 2 -Mt 800 -Is 2.255 -Id -1.255 -It OLSR -Il 48 -If 0 -Ii 0 -Iv 32 -P olsr -Pn 1 -Ps 0 [-Pt HELLO -Po 2 -Ph 0 -Pms 0] 
s -t 0.099986536 -Hs 0 -Hd -1 -Ni 0 -Nx 160.00 -Ny 485.00 -Nz 15.00 -Ne -1.000000 -Nl RTR -Nw --- -Ma 0 -Md 0 -Ms 0 -Mt 0 -Is 0.255 -Id -1.255 -It OLSR -Il 48 -If 0 -Ii 1 -Iv 32 -P olsr -Pn 1 -Ps 0 [-Pt HELLO -Po 0 -Ph 0 -Pms 0] 
r -t 0.101027381 -Hs 1 -Hd -1 -Ni 1 -Nx 305.00 -Ny 277.00 -Nz 15.00 -Ne -1.000000 -Nl RTR -Nw --- -Ma 0 -Md ffffffff -Ms 0 -Mt 800 -Is 0.255 -Id -1.255 -It OLSR -Il 48 -If 0 -Ii 1 -Iv 32 -P olsr -Pn 1 -Ps 0 [-Pt HELLO -Po 0 -Ph 0 -Pms 0] 
r -t 0.101027587 -Hs 2 -Hd -1 -Ni 2 -Nx 340.00 -Ny 226.00 -Nz 15.00 -Ne -1.000000 -Nl RTR -Nw --- -Ma 0 -Md ffffffff -Ms 0 -Mt 800 -Is 0.255 -Id -1.255 -It OLSR -Il 48 -If 0 -Ii 1 -Iv 32 -P olsr -Pn 1 -Ps 0 [-Pt HELLO -Po 0 -Ph 0 -Pms 0] 
r -t 0.101027911 -Hs 6 -Hd -1 -Ni 6 -Nx 570.00 -Ny 440.00 -Nz 15.00 -Ne -1.000000 -Nl RTR -Nw --- -Ma 0 -Md ffffffff -Ms 0 -Mt 800 -Is 0.255 -Id -1.255 -It OLSR -Il 48 -If 0 -Ii 1 -Iv 32 -P olsr -Pn 1 -Ps 0 [-Pt HELLO -Po 0 -Ph 0 -Pms 0] 
r -t 0.101027954 -Hs 4 -Hd -1 -Ni 4 -Nx 476.00 -Ny 200.00 -Nz 15.00 -Ne -1.000000 -Nl RTR -Nw --- -Ma 0 -Md ffffffff -Ms 0 -Mt 800 -Is 0.255 -Id -1.255 -It OLSR -Il 48 -If 0 -Ii 1 -Iv 32 -P olsr -Pn 1 -Ps 0 [-Pt HELLO -Po 0 -Ph 0 -Pms 0] 
r -t 0.101028090 -Hs 3 -Hd -1 -Ni 3 -Nx 270.00 -Ny 32.00 -Nz 15.00 -Ne -1.000000 -Nl RTR -Nw --- -Ma 0 -Md ffffffff -Ms 0 -Mt 800 -Is 0.255 -Id -1.255 -It OLSR -Il 48 -If 0 -Ii 1 -Iv 32 -P olsr -Pn 1 -Ps 0 [-Pt HELLO -Po 0 -Ph 0 -Pms 0] 
s -t 0.184182694 -Hs 3 -Hd -1 -Ni 3 -Nx 270.00 -Ny 32.00 -Nz 15.00 -Ne -1.000000 -Nl RTR -Nw --- -Ma 0 -Md 0 -Ms 0 -Mt 0 -Is 3.255 -Id -1.255 -It OLSR -Il 48 -If 0 -Ii 2 -Iv 32 -P olsr -Pn 1 -Ps 0 [-Pt HELLO -Po 3 -Ph 0 -Pms 0] 
r -t 0.185003381 -Hs 2 -Hd -1 -Ni 2 -Nx 340.00 -Ny 226.00 -Nz 15.00 -Ne -1.000000 -Nl RTR -Nw --- -Ma 0 -Md ffffffff -Ms 3 -Mt 800 -Is 3.255 -Id -1.255 -It OLSR -Il 48 -If 0 -Ii 2 -Iv 32 -P olsr -Pn 1 -Ps 0 [-Pt HELLO -Po 3 -Ph 0 -Pms 0] 
r -t 0.185003519 -Hs 1 -Hd -1 -Ni 1 -Nx 305.00 -Ny 277.00 -Nz 15.00 -Ne -1.000000 -Nl RTR -Nw --- -Ma 0 -Md ffffffff -Ms 3 -Mt 800 -Is 3.255 -Id -1.255 -It OLSR -Il 48 -If 0 -Ii 2 -Iv 32 -P olsr -Pn 1 -Ps 0 [-Pt HELLO -Po 3 -Ph 0 -Pms 0] 
r -t 0.185004248 -Hs 0 -Hd -1 -Ni 0 -Nx 160.00 -Ny 485.00 -Nz 15.00 -Ne -1.000000 -Nl RTR -Nw --- -Ma 0 -Md ffffffff -Ms 3 -Mt 800 -Is 3.255 -Id -1.255 -It OLSR -Il 48 -If 0 -Ii 2 -Iv 32 -P olsr -Pn 1 -Ps 0 [-Pt HELLO -Po 3 -Ph 0 -Pms 0] 
r -t 0.185004382 -Hs 6 -Hd -1 -Ni 6 -Nx 570.00 -Ny 440.00 -Nz 15.00 -Ne -1.000000 -Nl RTR -Nw --- -Ma 0 -Md ffffffff -Ms 3 -Mt 800 -Is 3.255 -Id -1.255 -It OLSR -Il 48 -If 0 -Ii 2 -Iv 32 -P olsr -Pn 1 -Ps 0 [-Pt HELLO -Po 3 -Ph 0 -Pms 0] 
s -t 0.250248643 -Hs 6 -Hd -1 -Ni 6 -Nx 570.00 -Ny 440.00 -Nz 15.00 -Ne -1.000000 -Nl RTR -Nw --- -Ma 0 -Md 0 -Ms 0 -Mt 0 -Is 6.255 -Id -1.255 -It OLSR -Il 48 -If 0 -Ii 3 -Iv 32 -P olsr -Pn 1 -Ps 0 [-Pt HELLO -Po 6 -Ph 0 -Pms 0] 
r -t 0.251309087 -Hs 5 -Hd -1 -Ni 5 -Nx 628.00 -Ny 320.00 -Nz 15.00 -Ne -1.000000 -Nl RTR -Nw --- -Ma 0 -Md ffffffff -Ms 6 -Mt 800 -Is 6.255 -Id -1.255 -It OLSR -Il 48 -If 0 -Ii 3 -Iv 32 -P olsr -Pn 1 -Ps 0 [-Pt HELLO -Po 6 -Ph 0 -Pms 0] 
r -t 0.251309355 -Hs 7 -Hd -1 -Ni 7 -Nx 780.00 -Ny 480.00 -Nz 15.00 -Ne -1.000000 -Nl RTR -Nw --- -Ma 0 -Md ffffffff -Ms 6 -Mt 800 -Is 6.255 -Id -1.255 -It OLSR -Il 48 -If 0 -Ii 3 -Iv 32 -P olsr -Pn 1 -Ps 0 [-Pt HELLO -Po 6 -Ph 0 -Pms 0] 
r -t 0.251309502 -Hs 4 -Hd -1 -Ni 4 -Nx 476.00 -Ny 200.00 -Nz 15.00 -Ne -1.000000 -Nl RTR -Nw --- -Ma 0 -Md ffffffff -Ms 6 -Mt 800 -Is 6.255 -Id -1.255 -It OLSR -Il 48 -If 0 -Ii 3 -Iv 32 -P olsr -Pn 1 -Ps 0 [-Pt HELLO -Po 6 -Ph 0 -Pms 0] 
r -t 0.251309680 -Hs 1 -Hd -1 -Ni 1 -Nx 305.00 -Ny 277.00 -Nz 15.00 -Ne -1.000000 -Nl RTR -Nw --- -Ma 0 -Md ffffffff -Ms 6 -Mt 800 -Is 6.255 -Id -1.255 -It OLSR -Il 48 -If 0 -Ii 3 -Iv 32 -P olsr -Pn 1 -Ps 0 [-Pt HELLO -Po 6 -Ph 0 -Pms 0] 
r -t 0.251309690 -Hs 2 -Hd -1 -Ni 2 -Nx 340.00 -Ny 226.00 -Nz 15.00 -Ne -1.000000 -Nl RTR -Nw --- -Ma 0 -Md ffffffff -Ms 6 -Mt 800 -Is 6.255 -Id -1.255 -It OLSR -Il 48 -If 0 -Ii 3 -Iv 32 -P olsr -Pn 1 -Ps 0 [-Pt HELLO -Po 6 -Ph 0 -Pms 0] 
r -t 0.251309915 -Hs 8 -Hd -1 -Ni 8 -Nx 918.00 -Ny 597.00 -Nz 15.00 -Ne -1.000000 -Nl RTR -Nw --- -Ma 0 -Md ffffffff -Ms 6 -Mt 800 -Is 6.255 -Id -1.255 -It OLSR -Il 48 -If 0 -Ii 3 -Iv 32 -P olsr -Pn 1 -Ps 0 [-Pt HELLO -Po 6 -Ph 0 -Pms 0] 
r -t 0.251310018 -Hs 0 -Hd -1 -Ni 0 -Nx 160.00 -Ny 485.00 -Nz 15.00 -Ne -1.000000 -Nl RTR -Nw --- -Ma 0 -Md ffffffff -Ms 6 -Mt 800 -Is 6.255 -Id -1.255 -It OLSR -Il 48 -If 0 -Ii 3 -Iv 32 -P olsr -Pn 1 -Ps 0 [-Pt HELLO -Po 6 -Ph 0 -Pms 0] 
r -t 0.251310019 -Hs 9 -Hd -1 -Ni 9 -Nx 968.00 -Ny 550.00 -Nz 15.00 -Ne -1.000000 -Nl RTR -Nw --- -Ma 0 -Md ffffffff -Ms 6 -Mt 800 -Is 6.255 -Id -1.255 -It OLSR -Il 48 -If 0 -Ii 3 -Iv 32 -P olsr -Pn 1 -Ps 0 [-Pt HELLO -Po 6 -Ph 0 -Pms 0] 
r -t 0.251310331 -Hs 3 -Hd -1 -Ni 3 -Nx 270.00 -Ny 32.00 -Nz 15.00 -Ne -1.000000 -Nl RTR -Nw --- -Ma 0 -Md ffffffff -Ms 6 -Mt 800 -Is 6.255 -Id -1.255 -It OLSR -Il 48 -If 0 -Ii 3 -Iv 32 -P olsr -Pn 1 -Ps 0 [-Pt HELLO -Po 6 -Ph 0 -Pms 0] 
s -t 0.293762510 -Hs 8 -Hd -1 -Ni 8 -Nx 918.00 -Ny 597.00 -Nz 15.00 -Ne -1.000000 -Nl RTR -Nw --- -Ma 0 -Md 0 -Ms 0 -Mt 0 -Is 8.255 -Id -1.255 -It OLSR -Il 48 -If 0 -Ii 4 -Iv 32 -P olsr -Pn 1 -Ps 0 [-Pt HELLO -Po 8 -Ph 0 -Pms 0] 
r -t 0.294602739 -Hs 9 -Hd -1 -Ni 9 -Nx 968.00 -Ny 550.00 -Nz 15.00 -Ne -1.000000 -Nl RTR -Nw --- -Ma 0 -Md ffffffff -Ms 8 -Mt 800 -Is 8.255 -Id -1.255 -It OLSR -Il 48 -If 0 -Ii 4 -Iv 32 -P olsr -Pn 1 -Ps 0 [-Pt HELLO -Po 8 -Ph 0 -Pms 0] 
r -t 0.294603113 -Hs 7 -Hd -1 -Ni 7 -Nx 780.00 -Ny 480.00 -Nz 15.00 -Ne -1.000000 -Nl RTR -Nw --- -Ma 0 -Md ffffffff -Ms 8 -Mt 800 -Is 8.255 -Id -1.255 -It OLSR -Il 48 -If 0 -Ii 4 -Iv 32 -P olsr -Pn 1 -Ps 0 [-Pt HELLO -Po 8 -Ph 0 -Pms 0] 
r -t 0.294603783 -Hs 6 -Hd -1 -Ni 6 -Nx 570.00 -Ny 440.00 -Nz 15.00 -Ne -1.000000 -Nl RTR -Nw --- -Ma 0 -Md ffffffff -Ms 8 -Mt 800 -Is 8.255 -Id -1.255 -It OLSR -Il 48 -If 0 -Ii 4 -Iv 32 -P olsr -Pn 1 -Ps 0 [-Pt HELLO -Po 8 -Ph 0 -Pms 0] 
r -t 0.294603847 -Hs 5 -Hd -1 -Ni 5 -Nx 628.00 -Ny 320.00 -Nz 15.00 -Ne -1.000000 -Nl RTR -Nw --- -Ma 0 -Md ffffffff -Ms 8 -Mt 800 -Is 8.255 -Id -1.255 -It OLSR -Il 48 -If 0 -Ii 4 -Iv 32 -P olsr -Pn 1 -Ps 0 [-Pt HELLO -Po 8 -Ph 0 -Pms 0] 
r -t 0.294604800 -Hs 2 -Hd -1 -Ni 2 -Nx 340.00 -Ny 226.00 -Nz 15.00 -Ne -1.000000 -Nl RTR -Nw --- -Ma 0 -Md ffffffff -Ms 8 -Mt 800 -Is 8.255 -Id -1.255 -It OLSR -Il 48 -If 0 -Ii 4 -Iv 32 -P olsr -Pn 1 -Ps 0 [-Pt HELLO -Po 8 -Ph 0 -Pms 0] 
r -t 0.294604815 -Hs 1 -Hd -1 -Ni 1 -Nx 305.00 -Ny 277.00 -Nz 15.00 -Ne -1.000000 -Nl RTR -Nw --- -Ma 0 -Md ffffffff -Ms 8 -Mt 800 -Is 8.255 -Id -1.255 -It OLSR -Il 48 -If 0 -Ii 4 -Iv 32 -P olsr -Pn 1 -Ps 0 [-Pt HELLO -Po 8 -Ph 0 -Pms 0] 
s -t 0.381737252 -Hs 1 -Hd -1 -Ni 1 -Nx 305.00 -Ny 277.00 -Nz 15.00 -Ne -1.000000 -Nl RTR -Nw --- -Ma 0 -Md 0 -Ms 0 -Mt 0 -Is 1.255 -Id -1.255 -It OLSR -Il 48 -If 0 -Ii 5 -Iv 32 -P olsr -Pn 1 -Ps 0 [-Pt HELLO -Po 1 -Ph 0 -Pms 0] 
r -t 0.382737458 -Hs 2 -Hd -1 -Ni 2 -Nx 340.00 -Ny 226.00 -Nz 15.00 -Ne -1.000000 -Nl RTR -Nw --- -Ma 0 -Md ffffffff -Ms 1 -Mt 800 -Is 1.255 -Id -1.255 -It OLSR -Il 48 -If 0 -Ii 5 -Iv 32 -P olsr -Pn 1 -Ps 0 [-Pt HELLO -Po 1 -Ph 0 -Pms 0] 
r -t 0.382737877 -Hs 4 -Hd -1 -Ni 4 -Nx 476.00 -Ny 200.00 -Nz 15.00 -Ne -1.000000 -Nl RTR -Nw --- -Ma 0 -Md ffffffff -Ms 1 -Mt 800 -Is 1.255 -Id -1.255 -It OLSR -Il 48 -If 0 -Ii 5 -Iv 32 -P olsr -Pn 1 -Ps 0 [-Pt HELLO -Po 1 -Ph 0 -Pms 0] 
r -t 0.382738077 -Hs 3 -Hd -1 -Ni 3 -Nx 270.00 -Ny 32.00 -Nz 15.00 -Ne -1.000000 -Nl RTR -Nw --- -Ma 0 -Md ffffffff -Ms 1 -Mt 800 -Is 1.255 -Id -1.255 -It OLSR -Il 48 -If 0 -Ii 5 -Iv 32 -P olsr -Pn 1 -Ps 0 [-Pt HELLO -Po 1 -Ph 0 -Pms 0] 
r -t 0.382738097 -Hs 0 -Hd -1 -Ni 0 -Nx 160.00 -Ny 485.00 -Nz 15.00 -Ne -1.000000 -Nl RTR -Nw --- -Ma 0 -Md ffffffff -Ms 1 -Mt 800 -Is 1.255 -Id -1.255 -It OLSR -Il 48 -If 0 -Ii 5 -Iv 32 -P olsr -Pn 1 -Ps 0 [-Pt HELLO -Po 1 -Ph 0 -Pms 0] 
r -t 0.382738289 -Hs 6 -Hd -1 -Ni 6 -Nx 570.00 -Ny 440.00 -Nz 15.00 -Ne -1.000000 -Nl RTR -Nw --- -Ma 0 -Md ffffffff -Ms 1 -Mt 800 -Is 1.255 -Id -1.255 -It OLSR -Il 48 -If 0 -Ii 5 -Iv 32 -P olsr -Pn 1 -Ps 0 [-Pt HELLO -Po 1 -Ph 0 -Pms 0] 
r -t 0.382738338 -Hs 5 -Hd -1 -Ni 5 -Nx 628.00 -Ny 320.00 -Nz 15.00 -Ne -1.000000 -Nl RTR -Nw --- -Ma 0 -Md ffffffff -Ms 1 -Mt 800 -Is 1.255 -Id -1.255 -It OLSR -Il 48 -If 0 -Ii 5 -Iv 32 -P olsr -Pn 1 -Ps 0 [-Pt HELLO -Po 1 -Ph 0 -Pms 0] 
s -t 0.425825002 -Hs 4 -Hd -1 -Ni 4 -Nx 476.00 -Ny 200.00 -Nz 15.00 -Ne -1.000000 -Nl RTR -Nw --- -Ma 0 -Md 0 -Ms 0 -Mt 0 -Is 4.255 -Id -1.255 -It OLSR -Il 48 -If 0 -Ii 6 -Iv 32 -P olsr -Pn 1 -Ps 0 [-Pt HELLO -Po 4 -Ph 0 -Pms 0] 
s -t 0.426716648 -Hs 7 -Hd -1 -Ni 7 -Nx 780.00 -Ny 480.00 -Nz 15.00 -Ne -1.000000 -Nl RTR -Nw --- -Ma 0 -Md 0 -Ms 0 -Mt 0 -Is 7.255 -Id -1.255 -It OLSR -Il 48 -If 0 -Ii 7 -Iv 32 -P olsr -Pn 1 -Ps 0 [-Pt HELLO -Po 7 -Ph 0 -Pms 0] 
r -t 0.426925464 -Hs 2 -Hd -1 -Ni 2 -Nx 340.00 -Ny 226.00 -Nz 15.00 -Ne -1.000000 -Nl RTR -Nw --- -Ma 0 -Md ffffffff -Ms 4 -Mt 800 -Is 4.255 -Id -1.255 -It OLSR -Il 48 -If 0 -Ii 6 -Iv 32 -P olsr -Pn 1 -Ps 0 [-Pt HELLO -Po 4 -Ph 0 -Pms 0] 
r -t 0.426925627 -Hs 1 -Hd -1 -Ni 1 -Nx 305.00 -Ny 277.00 -Nz 15.00 -Ne -1.000000 -Nl RTR -Nw --- -Ma 0 -Md ffffffff -Ms 4 -Mt 800 -Is 4.255 -Id -1.255 -It OLSR -Il 48 -If 0 -Ii 6 -Iv 32 -P olsr -Pn 1 -Ps 0 [-Pt HELLO -Po 4 -Ph 0 -Pms 0] 
r -t 0.426925648 -Hs 5 -Hd -1 -Ni 5 -Nx 628.00 -Ny 320.00 -Nz 15.00 -Ne -1.000000 -Nl RTR -Nw --- -Ma 0 -Md ffffffff -Ms 4 -Mt 800 -Is 4.255 -Id -1.255 -It OLSR -Il 48 -If 0 -Ii 6 -Iv 32 -P olsr -Pn 1 -Ps 0 [-Pt HELLO -Po 4 -Ph 0 -Pms 0] 
r -t 0.426925861 -Hs 6 -Hd -1 -Ni 6 -Nx 570.00 -Ny 440.00 -Nz 15.00 -Ne -1.000000 -Nl RTR -Nw --- -Ma 0 -Md ffffffff -Ms 4 -Mt 800 -Is 4.255 -Id -1.255 -It OLSR -Il 48 -If 0 -Ii 6 -Iv 32 -P olsr -Pn 1 -Ps 0 [-Pt HELLO -Po 4 -Ph 0 -Pms 0] 
r -t 0.426925888 -Hs 3 -Hd -1 -Ni 3 -Nx 270.00 -Ny 32.00 -Nz 15.00 -Ne -1.000000 -Nl RTR -Nw --- -Ma 0 -Md ffffffff -Ms 4 -Mt 800 -Is 4.255 -Id -1.255 -It OLSR -Il 48 -If 0 -Ii 6 -Iv 32 -P olsr -Pn 1 -Ps 0 [-Pt HELLO -Po 4 -Ph 0 -Pms 0] 
r -t 0.428020983 -Hs 8 -Hd -1 -Ni 8 -Nx 918.00 -Ny 597.00 -Nz 15.00 -Ne -1.000000 -Nl RTR -Nw --- -Ma 0 -Md ffffffff -Ms 7 -Mt 800 -Is 7.255 -Id -1.255 -It OLSR -Il 48 -If 0 -Ii 7 -Iv 32 -P olsr -Pn 1 -Ps 0 [-Pt HELLO -Po 7 -Ph 0 -Pms 0] 
r -t 0.428021049 -Hs 9 -Hd -1 -Ni 9 -Nx 968.00 -Ny 550.00 -Nz 15.00 -Ne -1.000000 -Nl RTR -Nw --- -Ma 0 -Md ffffffff -Ms 7 -Mt 800 -Is 7.255 -Id -1.255 -It OLSR -Il 48 -If 0 -Ii 7 -Iv 32 -P olsr -Pn 1 -Ps 0 [-Pt HELLO -Po 7 -Ph 0 -Pms 0] 
r -t 0.428021093 -Hs 6 -Hd -1 -Ni 6 -Nx 570.00 -Ny 440.00 -Nz 15.00 -Ne -1.000000 -Nl RTR -Nw --- -Ma 0 -Md ffffffff -Ms 7 -Mt 800 -Is 7.255 -Id -1.255 -It OLSR -Il 48 -If 0 -Ii 7 -Iv 32 -P olsr -Pn 1 -Ps 0 [-Pt HELLO -Po 7 -Ph 0 -Pms 0] 
r -t 0.428021116 -Hs 5 -Hd -1 -Ni 5 -Nx 628.00 -Ny 320.00 -Nz 15.00 -Ne -1.000000 -Nl RTR -Nw --- -Ma 0 -Md ffffffff -Ms 7 -Mt 800 -Is 7.255 -Id -1.255 -It OLSR -Il 48 -If 0 -Ii 7 -Iv 32 -P olsr -Pn 1 -Ps 0 [-Pt HELLO -Po 7 -Ph 0 -Pms 0] 
r -t 0.428021758 -Hs 4 -Hd -1 -Ni 4 -Nx 476.00 -Ny 200.00 -Nz 15.00 -Ne -1.000000 -Nl RTR -Nw --- -Ma 0 -Md ffffffff -Ms 7 -Mt 800 -Is 7.255 -Id -1.255 -It OLSR -Il 48 -If 0 -Ii 7 -Iv 32 -P olsr -Pn 1 -Ps 0 [-Pt HELLO -Po 7 -Ph 0 -Pms 0] 
r -t 0.428022073 -Hs 2 -Hd -1 -Ni 2 -Nx 340.00 -Ny 226.00 -Nz 15.00 -Ne -1.000000 -Nl RTR -Nw --- -Ma 0 -Md ffffffff -Ms 7 -Mt 800 -Is 7.255 -Id -1.255 -It OLSR -Il 48 -If 0 -Ii 7 -Iv 32 -P olsr -Pn 1 -Ps 0 [-Pt HELLO -Po 7 -Ph 0 -Pms 0] 
r -t 0.428022102 -Hs 1 -Hd -1 -Ni 1 -Nx 305.00 -Ny 277.00 -Nz 15.00 -Ne -1.000000 -Nl RTR -Nw --- -Ma 0 -Md ffffffff -Ms 7 -Mt 800 -Is 7.255 -Id -1.255 -It OLSR -Il 48 -If 0 -Ii 7 -Iv 32 -P olsr -Pn 1 -Ps 0 [-Pt HELLO -Po 7 -Ph 0 -Pms 0] 
r -t 0.428022447 -Hs 0 -Hd -1 -Ni 0 -Nx 160.00 -Ny 485.00 -Nz 15.00 -Ne -1.000000 -Nl RTR -Nw --- -Ma 0 -Md ffffffff -Ms 7 -Mt 800 -Is 7.255 -Id -1.255 -It OLSR -Il 48 -If 0 -Ii 7 -Iv 32 -P olsr -Pn 1 -Ps 0 [-Pt HELLO -Po 7 -Ph 0 -Pms 0] 
s -t 0.463469950 -Hs 9 -Hd -1 -Ni 9 -Nx 968.00 -Ny 550.00 -Nz 15.00 -Ne -1.000000 -Nl RTR -Nw --- -Ma 0 -Md 0 -Ms 0 -Mt 0 -Is 9.255 -Id -1.255 -It OLSR -Il 48 -If 0 -Ii 8 -Iv 32 -P olsr -Pn 1 -Ps 0 [-Pt HELLO -Po 9 -Ph 0 -Pms 0] 
r -t 0.464670179 -Hs 8 -Hd -1 -Ni 8 -Nx 918.00 -Ny 597.00 -Nz 15.00 -Ne -1.000000 -Nl RTR -Nw --- -Ma 0 -Md ffffffff -Ms 9 -Mt 800 -Is 9.255 -Id -1.255 -It OLSR -Il 48 -If 0 -Ii 8 -Iv 32 -P olsr -Pn 1 -Ps 0 [-Pt HELLO -Po 9 -Ph 0 -Pms 0] 
r -t 0.464670619 -Hs 7 -Hd -1 -Ni 7 -Nx 780.00 -Ny 480.00 -Nz 15.00 -Ne -1.000000 -Nl RTR -Nw --- -Ma 0 -Md ffffffff -Ms 9 -Mt 800 -Is 9.255 -Id -1.255 -It OLSR -Il 48 -If 0 -Ii 8 -Iv 32 -P olsr -Pn 1 -Ps 0 [-Pt HELLO -Po 9 -Ph 0 -Pms 0] 
r -t 0.464671326 -Hs 6 -Hd -1 -Ni 6 -Nx 570.00 -Ny 440.00 -Nz 15.00 -Ne -1.000000 -Nl RTR -Nw --- -Ma 0 -Md ffffffff -Ms 9 -Mt 800 -Is 9.255 -Id -1.255 -It OLSR -Il 48 -If 0 -Ii 8 -Iv 32 -P olsr -Pn 1 -Ps 0 [-Pt HELLO -Po 9 -Ph 0 -Pms 0] 
r -t 0.464672305 -Hs 2 -Hd -1 -Ni 2 -Nx 340.00 -Ny 226.00 -Nz 15.00 -Ne -1.000000 -Nl RTR -Nw --- -Ma 0 -Md ffffffff -Ms 9 -Mt 800 -Is 9.255 -Id -1.255 -It OLSR -Il 48 -If 0 -Ii 8 -Iv 32 -P olsr -Pn 1 -Ps 0 [-Pt HELLO -Po 9 -Ph 0 -Pms 0] 
r -t 0.464672340 -Hs 1 -Hd -1 -Ni 1 -Nx 305.00 -Ny 277.00 -Nz 15.00 -Ne -1.000000 -Nl RTR -Nw --- -Ma 0 -Md ffffffff -Ms 9 -Mt 800 -Is 9.255 -Id -1.255 -It OLSR -Il 48 -If 0 -Ii 8 -Iv 32 -P olsr -Pn 1 -Ps 0 [-Pt HELLO -Po 9 -Ph 0 -Pms 0] 
s -t 0.489918383 -Hs 5 -Hd -1 -Ni 5 -Nx 628.00 -Ny 320.00 -Nz 15.00 -Ne -1.000000 -Nl RTR -Nw --- -Ma 0 -Md 0 -Ms 0 -Mt 0 -Is 5.255 -Id -1.255 -It OLSR -Il 48 -If 0 -Ii 9 -Iv 32 -P olsr -Pn 1 -Ps 0 [-Pt HELLO -Po 5 -Ph 0 -Pms 0] 
r -t 0.490698828 -Hs 6 -Hd -1 -Ni 6 -Nx 570.00 -Ny 440.00 -Nz 15.00 -Ne -1.000000 -Nl RTR -Nw --- -Ma 0 -Md ffffffff -Ms 5 -Mt 800 -Is 5.255 -Id -1.255 -It OLSR -Il 48 -If 0 -Ii 9 -Iv 32 -P olsr -Pn 1 -Ps 0 [-Pt HELLO -Po 5 -Ph 0 -Pms 0] 
r -t 0.490699029 -Hs 4 -Hd -1 -Ni 4 -Nx 476.00 -Ny 200.00 -Nz 15.00 -Ne -1.000000 -Nl RTR -Nw --- -Ma 0 -Md ffffffff -Ms 5 -Mt 800 -Is 5.255 -Id -1.255 -It OLSR -Il 48 -If 0 -Ii 9 -Iv 32 -P olsr -Pn 1 -Ps 0 [-Pt HELLO -Po 5 -Ph 0 -Pms 0] 
r -t 0.490699119 -Hs 7 -Hd -1 -Ni 7 -Nx 780.00 -Ny 480.00 -Nz 15.00 -Ne -1.000000 -Nl RTR -Nw --- -Ma 0 -Md ffffffff -Ms 5 -Mt 800 -Is 5.255 -Id -1.255 -It OLSR -Il 48 -If 0 -Ii 9 -Iv 32 -P olsr -Pn 1 -Ps 0 [-Pt HELLO -Po 5 -Ph 0 -Pms 0] 
r -t 0.490699393 -Hs 2 -Hd -1 -Ni 2 -Nx 340.00 -Ny 226.00 -Nz 15.00 -Ne -1.000000 -Nl RTR -Nw --- -Ma 0 -Md ffffffff -Ms 5 -Mt 800 -Is 5.255 -Id -1.255 -It OLSR -Il 48 -If 0 -Ii 9 -Iv 32 -P olsr -Pn 1 -Ps 0 [-Pt HELLO -Po 5 -Ph 0 -Pms 0] 
r -t 0.490699469 -Hs 1 -Hd -1 -Ni 1 -Nx 305.00 -Ny 277.00 -Nz 15.00 -Ne -1.000000 -Nl RTR -Nw --- -Ma 0 -Md ffffffff -Ms 5 -Mt 800 -Is 5.255 -Id -1.255 -It OLSR -Il 48 -If 0 -Ii 9 -Iv 32 -P olsr -Pn 1 -Ps 0 [-Pt HELLO -Po 5 -Ph 0 -Pms 0] 
r -t 0.490699720 -Hs 8 -Hd -1 -Ni 8 -Nx 918.00 -Ny 597.00 -Nz 15.00 -Ne -1.000000 -Nl RTR -Nw --- -Ma 0 -Md ffffffff -Ms 5 -Mt 800 -Is 5.255 -Id -1.255 -It OLSR -Il 48 -If 0 -Ii 9 -Iv 32 -P olsr -Pn 1 -Ps 0 [-Pt HELLO -Po 5 -Ph 0 -Pms 0] 
r -t 0.490699752 -Hs 9 -Hd -1 -Ni 9 -Nx 968.00 -Ny 550.00 -Nz 15.00 -Ne -1.000000 -Nl RTR -Nw --- -Ma 0 -Md ffffffff -Ms 5 -Mt 800 -Is 5.255 -Id -1.255 -It OLSR -Il 48 -If 0 -Ii 9 -Iv 32 -P olsr -Pn 1 -Ps 0 [-Pt HELLO -Po 5 -Ph 0 -Pms 0] 
r -t 0.490699915 -Hs 3 -Hd -1 -Ni 3 -Nx 270.00 -Ny 32.00 -Nz 15.00 -Ne -1.000000 -Nl RTR -Nw --- -Ma 0 -Md ffffffff -Ms 5 -Mt 800 -Is 5.255 -Id -1.255 -It OLSR -Il 48 -If 0 -Ii 9 -Iv 32 -P olsr -Pn 1 -Ps 0 [-Pt HELLO -Po 5 -Ph 0 -Pms 0] 
s -t 1.583467984 -Hs 7 -Hd -1 -Ni 7 -Nx 780.00 -Ny 480.00 -Nz 15.00 -Ne -1.000000 -Nl RTR -Nw --- -Ma 0 -Md 0 -Ms 0 -Mt 0 -Is 7.255 -Id -1.255 -It OLSR -Il 72 -If 0 -Ii 10 -Iv 32 -P olsr -Pn 1 -Ps 1 [-Pt HELLO -Po 7 -Ph 0 -Pms 1] 
r -t 1.584184587 -Hs 8 -Hd -1 -Ni 8 -Nx 918.00 -Ny 597.00 -Nz 15.00 -Ne -1.000000 -Nl RTR -Nw --- -Ma 0 -Md ffffffff -Ms 7 -Mt 800 -Is 7.255 -Id -1.255 -It OLSR -Il 72 -If 0 -Ii 10 -Iv 32 -P olsr -Pn 1 -Ps 1 [-Pt HELLO -Po 7 -Ph 0 -Pms 1] 
r -t 1.584184653 -Hs 9 -Hd -1 -Ni 9 -Nx 968.00 -Ny 550.00 -Nz 15.00 -Ne -1.000000 -Nl RTR -Nw --- -Ma 0 -Md ffffffff -Ms 7 -Mt 800 -Is 7.255 -Id -1.255 -It OLSR -Il 72 -If 0 -Ii 10 -Iv 32 -P olsr -Pn 1 -Ps 1 [-Pt HELLO -Po 7 -Ph 0 -Pms 1] 
r -t 1.584184697 -Hs 6 -Hd -1 -Ni 6 -Nx 570.00 -Ny 440.00 -Nz 15.00 -Ne -1.000000 -Nl RTR -Nw --- -Ma 0 -Md ffffffff -Ms 7 -Mt 800 -Is 7.255 -Id -1.255 -It OLSR -Il 72 -If 0 -Ii 10 -Iv 32 -P olsr -Pn 1 -Ps 1 [-Pt HELLO -Po 7 -Ph 0 -Pms 1] 
r -t 1.584184720 -Hs 5 -Hd -1 -Ni 5 -Nx 628.00 -Ny 320.00 -Nz 15.00 -Ne -1.000000 -Nl RTR -Nw --- -Ma 0 -Md ffffffff -Ms 7 -Mt 800 -Is 7.255 -Id -1.255 -It OLSR -Il 72 -If 0 -Ii 10 -Iv 32 -P olsr -Pn 1 -Ps 1 [-Pt HELLO -Po 7 -Ph 0 -Pms 1] 
r -t 1.584185362 -Hs 4 -Hd -1 -Ni 4 -Nx 476.00 -Ny 200.00 -Nz 15.00 -Ne -1.000000 -Nl RTR -Nw --- -Ma 0 -Md ffffffff -Ms 7 -Mt 800 -Is 7.255 -Id -1.255 -It OLSR -Il 72 -If 0 -Ii 10 -Iv 32 -P olsr -Pn 1 -Ps 1 [-Pt HELLO -Po 7 -Ph 0 -Pms 1] 
s -t 1.707541464 -Hs 1 -Hd -1 -Ni 1 -Nx 305.00 -Ny 277.00 -Nz 15.00 -Ne -1.000000 -Nl RTR -Nw --- -Ma 0 -Md 0 -Ms 0 -Mt 0 -Is 1.255 -Id -1.255 -It OLSR -Il 88 -If 0 -Ii 11 -Iv 32 -P olsr -Pn 1 -Ps 1 [-Pt HELLO -Po 1 -Ph 0 -Pms 1] 
r -t 1.708701670 -Hs 2 -Hd -1 -Ni 2 -Nx 340.00 -Ny 226.00 -Nz 15.00 -Ne -1.000000 -Nl RTR -Nw --- -Ma 0 -Md ffffffff -Ms 1 -Mt 800 -Is 1.255 -Id -1.255 -It OLSR -Il 88 -If 0 -Ii 11 -Iv 32 -P olsr -Pn 1 -Ps 1 [-Pt HELLO -Po 1 -Ph 0 -Pms 1] 
r -t 1.708702089 -Hs 4 -Hd -1 -Ni 4 -Nx 476.00 -Ny 200.00 -Nz 15.00 -Ne -1.000000 -Nl RTR -Nw --- -Ma 0 -Md ffffffff -Ms 1 -Mt 800 -Is 1.255 -Id -1.255 -It OLSR -Il 88 -If 0 -Ii 11 -Iv 32 -P olsr -Pn 1 -Ps 1 [-Pt HELLO -Po 1 -Ph 0 -Pms 1] 
r -t 1.708702309 -Hs 0 -Hd -1 -Ni 0 -Nx 160.00 -Ny 485.00 -Nz 15.00 -Ne -1.000000 -Nl RTR -Nw --- -Ma 0 -Md ffffffff -Ms 1 -Mt 800 -Is 1.255 -Id -1.255 -It OLSR -Il 88 -If 0 -Ii 11 -Iv 32 -P olsr -Pn 1 -Ps 1 [-Pt HELLO -Po 1 -Ph 0 -Pms 1] 
r -t 1.708702501 -Hs 6 -Hd -1 -Ni 6 -Nx 570.00 -Ny 440.00 -Nz 15.00 -Ne -1.000000 -Nl RTR -Nw --- -Ma 0 -Md ffffffff -Ms 1 -Mt 800 -Is 1.255 -Id -1.255 -It OLSR -Il 88 -If 0 -Ii 11 -Iv 32 -P olsr -Pn 1 -Ps 1 [-Pt HELLO -Po 1 -Ph 0 -Pms 1] 
r -t 1.708702550 -Hs 5 -Hd -1 -Ni 5 -Nx 628.00 -Ny 320.00 -Nz 15.00 -Ne -1.000000 -Nl RTR -Nw --- -Ma 0 -Md ffffffff -Ms 1 -Mt 800 -Is 1.255 -Id -1.255 -It OLSR -Il 88 -If 0 -Ii 11 -Iv 32 -P olsr -Pn 1 -Ps 1 [-Pt HELLO -Po 1 -Ph 0 -Pms 1] 
r -t 1.708703769 -Hs 8 -Hd -1 -Ni 8 -Nx 918.00 -Ny 597.00 -Nz 15.00 -Ne -1.000000 -Nl RTR -Nw --- -Ma 0 -Md ffffffff -Ms 1 -Mt 800 -Is 1.255 -Id -1.255 -It OLSR -Il 88 -If 0 -Ii 11 -Iv 32 -P olsr -Pn 1 -Ps 1 [-Pt HELLO -Po 1 -Ph 0 -Pms 1] 
s -t 1.723814669 -Hs 4 -Hd -1 -Ni 4 -Nx 476.00 -Ny 200.00 -Nz 15.00 -Ne -1.000000 -Nl RTR -Nw --- -Ma 0 -Md 0 -Ms 0 -Mt 0 -Is 4.255 -Id -1.255 -It OLSR -Il 76 -If 0 -Ii 12 -Iv 32 -P olsr -Pn 1 -Ps 1 [-Pt HELLO -Po 4 -Ph 0 -Pms 1] 
r -t 1.725147130 -Hs 2 -Hd -1 -Ni 2 -Nx 340.00 -Ny 226.00 -Nz 15.00 -Ne -1.000000 -Nl RTR -Nw --- -Ma 0 -Md ffffffff -Ms 4 -Mt 800 -Is 4.255 -Id -1.255 -It OLSR -Il 76 -If 0 -Ii 12 -Iv 32 -P olsr -Pn 1 -Ps 1 [-Pt HELLO -Po 4 -Ph 0 -Pms 1] 
r -t 1.725147294 -Hs 1 -Hd -1 -Ni 1 -Nx 305.00 -Ny 277.00 -Nz 15.00 -Ne -1.000000 -Nl RTR -Nw --- -Ma 0 -Md ffffffff -Ms 4 -Mt 800 -Is 4.255 -Id -1.255 -It OLSR -Il 76 -If 0 -Ii 12 -Iv 32 -P olsr -Pn 1 -Ps 1 [-Pt HELLO -Po 4 -Ph 0 -Pms 1] 
r -t 1.725147314 -Hs 5 -Hd -1 -Ni 5 -Nx 628.00 -Ny 320.00 -Nz 15.00 -Ne -1.000000 -Nl RTR -Nw --- -Ma 0 -Md ffffffff -Ms 4 -Mt 800 -Is 4.255 -Id -1.255 -It OLSR -Il 76 -If 0 -Ii 12 -Iv 32 -P olsr -Pn 1 -Ps 1 [-Pt HELLO -Po 4 -Ph 0 -Pms 1] 
r -t 1.725147528 -Hs 6 -Hd -1 -Ni 6 -Nx 570.00 -Ny 440.00 -Nz 15.00 -Ne -1.000000 -Nl RTR -Nw --- -Ma 0 -Md ffffffff -Ms 4 -Mt 800 -Is 4.255 -Id -1.255 -It OLSR -Il 76 -If 0 -Ii 12 -Iv 32 -P olsr -Pn 1 -Ps 1 [-Pt HELLO -Po 4 -Ph 0 -Pms 1] 
r -t 1.725147555 -Hs 3 -Hd -1 -Ni 3 -Nx 270.00 -Ny 32.00 -Nz 15.00 -Ne -1.000000 -Nl RTR -Nw --- -Ma 0 -Md ffffffff -Ms 4 -Mt 800 -Is 4.255 -Id -1.255 -It OLSR -Il 76 -If 0 -Ii 12 -Iv 32 -P olsr -Pn 1 -Ps 1 [-Pt HELLO -Po 4 -Ph 0 -Pms 1] 
r -t 1.725148046 -Hs 7 -Hd -1 -Ni 7 -Nx 780.00 -Ny 480.00 -Nz 15.00 -Ne -1.000000 -Nl RTR -Nw --- -Ma 0 -Md ffffffff -Ms 4 -Mt 800 -Is 4.255 -Id -1.255 -It OLSR -Il 76 -If 0 -Ii 12 -Iv 32 -P olsr -Pn 1 -Ps 1 [-Pt HELLO -Po 4 -Ph 0 -Pms 1] 
r -t 1.725148087 -Hs 0 -Hd -1 -Ni 0 -Nx 160.00 -Ny 485.00 -Nz 15.00 -Ne -1.000000 -Nl RTR -Nw --- -Ma 0 -Md ffffffff -Ms 4 -Mt 800 -Is 4.255 -Id -1.255 -It OLSR -Il 76 -If 0 -Ii 12 -Iv 32 -P olsr -Pn 1 -Ps 1 [-Pt HELLO -Po 4 -Ph 0 -Pms 1] 
r -t 1.725148681 -Hs 9 -Hd -1 -Ni 9 -Nx 968.00 -Ny 550.00 -Nz 15.00 -Ne -1.000000 -Nl RTR -Nw --- -Ma 0 -Md ffffffff -Ms 4 -Mt 800 -Is 4.255 -Id -1.255 -It OLSR -Il 76 -If 0 -Ii 12 -Iv 32 -P olsr -Pn 1 -Ps 1 [-Pt HELLO -Po 4 -Ph 0 -Pms 1] 
s -t 1.726755784 -Hs 2 -Hd -1 -Ni 2 -Nx 340.00 -Ny 226.00 -Nz 15.00 -Ne -1.000000 -Nl RTR -Nw --- -Ma 0 -Md 0 -Ms 0 -Mt 0 -Is 2.255 -Id -1.255 -It OLSR -Il 92 -If 0 -Ii 13 -Iv 32 -P olsr -Pn 1 -Ps 1 [-Pt HELLO -Po 2 -Ph 0 -Pms 1] 
r -t 1.727991990 -Hs 1 -Hd -1 -Ni 1 -Nx 305.00 -Ny 277.00 -Nz 15.00 -Ne -1.000000 -Nl RTR -Nw --- -Ma 0 -Md ffffffff -Ms 2 -Mt 800 -Is 2.255 -Id -1.255 -It OLSR -Il 92 -If 0 -Ii 13 -Iv 32 -P olsr -Pn 1 -Ps 1 [-Pt HELLO -Po 2 -Ph 0 -Pms 1] 
r -t 1.727992246 -Hs 4 -Hd -1 -Ni 4 -Nx 476.00 -Ny 200.00 -Nz 15.00 -Ne -1.000000 -Nl RTR -Nw --- -Ma 0 -Md ffffffff -Ms 2 -Mt 800 -Is 2.255 -Id -1.255 -It OLSR -Il 92 -If 0 -Ii 13 -Iv 32 -P olsr -Pn 1 -Ps 1 [-Pt HELLO -Po 2 -Ph 0 -Pms 1] 
r -t 1.727992472 -Hs 3 -Hd -1 -Ni 3 -Nx 270.00 -Ny 32.00 -Nz 15.00 -Ne -1.000000 -Nl RTR -Nw --- -Ma 0 -Md ffffffff -Ms 2 -Mt 800 -Is 2.255 -Id -1.255 -It OLSR -Il 92 -If 0 -Ii 13 -Iv 32 -P olsr -Pn 1 -Ps 1 [-Pt HELLO -Po 2 -Ph 0 -Pms 1] 
r -t 1.727992794 -Hs 5 -Hd -1 -Ni 5 -Nx 628.00 -Ny 320.00 -Nz 15.00 -Ne -1.000000 -Nl RTR -Nw --- -Ma 0 -Md ffffffff -Ms 2 -Mt 800 -Is 2.255 -Id -1.255 -It OLSR -Il 92 -If 0 -Ii 13 -Iv 32 -P olsr -Pn 1 -Ps 1 [-Pt HELLO -Po 2 -Ph 0 -Pms 1] 
r -t 1.727992831 -Hs 6 -Hd -1 -Ni 6 -Nx 570.00 -Ny 440.00 -Nz 15.00 -Ne -1.000000 -Nl RTR -Nw --- -Ma 0 -Md ffffffff -Ms 2 -Mt 800 -Is 2.255 -Id -1.255 -It OLSR -Il 92 -If 0 -Ii 13 -Iv 32 -P olsr -Pn 1 -Ps 1 [-Pt HELLO -Po 2 -Ph 0 -Pms 1] 
r -t 1.727992835 -Hs 0 -Hd -1 -Ni 0 -Nx 160.00 -Ny 485.00 -Nz 15.00 -Ne -1.000000 -Nl RTR -Nw --- -Ma 0 -Md ffffffff -Ms 2 -Mt 800 -Is 2.255 -Id -1.255 -It OLSR -Il 92 -If 0 -Ii 13 -Iv 32 -P olsr -Pn 1 -Ps 1 [-Pt HELLO -Po 2 -Ph 0 -Pms 1] 
s -t 1.820204031 -Hs 6 -Hd -1 -Ni 6 -Nx 570.00 -Ny 440.00 -Nz 15.00 -Ne -1.000000 -Nl RTR -Nw --- -Ma 0 -Md 0 -Ms 0 -Mt 0 -Is 6.255 -Id -1.255 -It OLSR -Il 92 -If 0 -Ii 14 -Iv 32 -P olsr -Pn 1 -Ps 1 [-Pt HELLO -Po 6 -Ph 0 -Pms 1] 
r -t 1.821140475 -Hs 5 -Hd -1 -Ni 5 -Nx 628.00 -Ny 320.00 -Nz 15.00 -Ne -1.000000 -Nl RTR -Nw --- -Ma 0 -Md ffffffff -Ms 6 -Mt 800 -Is 6.255 -Id -1.255 -It OLSR -Il 92 -If 0 -Ii 14 -Iv 32 -P olsr -Pn 1 -Ps 1 [-Pt HELLO -Po 6 -Ph 0 -Pms 1] 
r -t 1.821140743 -Hs 7 -Hd -1 -Ni 7 -Nx 780.00 -Ny 480.00 -Nz 15.00 -Ne -1.000000 -Nl RTR -Nw --- -Ma 0 -Md ffffffff -Ms 6 -Mt 800 -Is 6.255 -Id -1.255 -It OLSR -Il 92 -If 0 -Ii 14 -Iv 32 -P olsr -Pn 1 -Ps 1 [-Pt HELLO -Po 6 -Ph 0 -Pms 1] 
r -t 1.821140890 -Hs 4 -Hd -1 -Ni 4 -Nx 476.00 -Ny 200.00 -Nz 15.00 -Ne -1.000000 -Nl RTR -Nw --- -Ma 0 -Md ffffffff -Ms 6 -Mt 800 -Is 6.255 -Id -1.255 -It OLSR -Il 92 -If 0 -Ii 14 -Iv 32 -P olsr -Pn 1 -Ps 1 [-Pt HELLO -Po 6 -Ph 0 -Pms 1] 
r -t 1.821141068 -Hs 1 -Hd -1 -Ni 1 -Nx 305.00 -Ny 277.00 -Nz 15.00 -Ne -1.000000 -Nl RTR -Nw --- -Ma 0 -Md ffffffff -Ms 6 -Mt 800 -Is 6.255 -Id -1.255 -It OLSR -Il 92 -If 0 -Ii 14 -Iv 32 -P olsr -Pn 1 -Ps 1 [-Pt HELLO -Po 6 -Ph 0 -Pms 1] 
r -t 1.821141078 -Hs 2 -Hd -1 -Ni 2 -Nx 340.00 -Ny 226.00 -Nz 15.00 -Ne -1.000000 -Nl RTR -Nw --- -Ma 0 -Md ffffffff -Ms 6 -Mt 800 -Is 6.255 -Id -1.255 -It OLSR -Il 92 -If 0 -Ii 14 -Iv 32 -P olsr -Pn 1 -Ps 1 [-Pt HELLO -Po 6 -Ph 0 -Pms 1] 
r -t 1.821141303 -Hs 8 -Hd -1 -Ni 8 -Nx 918.00 -Ny 597.00 -Nz 15.00 -Ne -1.000000 -Nl RTR -Nw --- -Ma 0 -Md ffffffff -Ms 6 -Mt 800 -Is 6.255 -Id -1.255 -It OLSR -Il 92 -If 0 -Ii 14 -Iv 32 -P olsr -Pn 1 -Ps 1 [-Pt HELLO -Po 6 -Ph 0 -Pms 1] 
r -t 1.821141406 -Hs 0 -Hd -1 -Ni 0 -Nx 160.00 -Ny 485.00 -Nz 15.00 -Ne -1.000000 -Nl RTR -Nw --- -Ma 0 -Md ffffffff -Ms 6 -Mt 800 -Is 6.255 -Id -1.255 -It OLSR -Il 92 -If 0 -Ii 14 -Iv 32 -P olsr -Pn 1 -Ps 1 [-Pt HELLO -Po 6 -Ph 0 -Pms 1] 
r -t 1.821141719 -Hs 3 -Hd -1 -Ni 3 -Nx 270.00 -Ny 32.00 -Nz 15.00 -Ne -1.000000 -Nl RTR -Nw --- -Ma 0 -Md ffffffff -Ms 6 -Mt 800 -Is 6.255 -Id -1.255 -It OLSR -Il 92 -If 0 -Ii 14 -Iv 32 -P olsr -Pn 1 -Ps 1 [-Pt HELLO -Po 6 -Ph 0 -Pms 1] 
s -t 1.841803264 -Hs 8 -Hd -1 -Ni 8 -Nx 918.00 -Ny 597.00 -Nz 15.00 -Ne -1.000000 -Nl RTR -Nw --- -Ma 0 -Md 0 -Ms 0 -Mt 0 -Is 8.255 -Id -1.255 -It OLSR -Il 76 -If 0 -Ii 15 -Iv 32 -P olsr -Pn 1 -Ps 1 [-Pt HELLO -Po 8 -Ph 0 -Pms 1] 
r -t 1.842795493 -Hs 9 -Hd -1 -Ni 9 -Nx 968.00 -Ny 550.00 -Nz 15.00 -Ne -1.000000 -Nl RTR -Nw --- -Ma 0 -Md ffffffff -Ms 8 -Mt 800 -Is 8.255 -Id -1.255 -It OLSR -Il 76 -If 0 -Ii 15 -Iv 32 -P olsr -Pn 1 -Ps 1 [-Pt HELLO -Po 8 -Ph 0 -Pms 1] 
r -t 1.842795868 -Hs 7 -Hd -1 -Ni 7 -Nx 780.00 -Ny 480.00 -Nz 15.00 -Ne -1.000000 -Nl RTR -Nw --- -Ma 0 -Md ffffffff -Ms 8 -Mt 800 -Is 8.255 -Id -1.255 -It OLSR -Il 76 -If 0 -Ii 15 -Iv 32 -P olsr -Pn 1 -Ps 1 [-Pt HELLO -Po 8 -Ph 0 -Pms 1] 
r -t 1.842796537 -Hs 6 -Hd -1 -Ni 6 -Nx 570.00 -Ny 440.00 -Nz 15.00 -Ne -1.000000 -Nl RTR -Nw --- -Ma 0 -Md ffffffff -Ms 8 -Mt 800 -Is 8.255 -Id -1.255 -It OLSR -Il 76 -If 0 -Ii 15 -Iv 32 -P olsr -Pn 1 -Ps 1 [-Pt HELLO -Po 8 -Ph 0 -Pms 1] 
r -t 1.842796601 -Hs 5 -Hd -1 -Ni 5 -Nx 628.00 -Ny 320.00 -Nz 15.00 -Ne -1.000000 -Nl RTR -Nw --- -Ma 0 -Md ffffffff -Ms 8 -Mt 800 -Is 8.255 -Id -1.255 -It OLSR -Il 76 -If 0 -Ii 15 -Iv 32 -P olsr -Pn 1 -Ps 1 [-Pt HELLO -Po 8 -Ph 0 -Pms 1] 
r -t 1.842797245 -Hs 4 -Hd -1 -Ni 4 -Nx 476.00 -Ny 200.00 -Nz 15.00 -Ne -1.000000 -Nl RTR -Nw --- -Ma 0 -Md ffffffff -Ms 8 -Mt 800 -Is 8.255 -Id -1.255 -It OLSR -Il 76 -If 0 -Ii 15 -Iv 32 -P olsr -Pn 1 -Ps 1 [-Pt HELLO -Po 8 -Ph 0 -Pms 1] 
s -t 2.128878622 -Hs 9 -Hd -1 -Ni 9 -Nx 968.00 -Ny 550.00 -Nz 15.00 -Ne -1.000000 -Nl RTR -Nw --- -Ma 0 -Md 0 -Ms 0 -Mt 0 -Is 9.255 -Id -1.255 -It OLSR -Il 76 -If 0 -Ii 16 -Iv 32 -P olsr -Pn 1 -Ps 1 [-Pt HELLO -Po 9 -Ph 0 -Pms 1] 
r -t 2.129650851 -Hs 8 -Hd -1 -Ni 8 -Nx 918.00 -Ny 597.00 -Nz 15.00 -Ne -1.000000 -Nl RTR -Nw --- -Ma 0 -Md ffffffff -Ms 9 -Mt 800 -Is 9.255 -Id -1.255 -It OLSR -Il 76 -If 0 -Ii 16 -Iv 32 -P olsr -Pn 1 -Ps 1 [-Pt HELLO -Po 9 -Ph 0 -Pms 1] 
r -t 2.129651291 -Hs 7 -Hd -1 -Ni 7 -Nx 780.00 -Ny 480.00 -Nz 15.00 -Ne -1.000000 -Nl RTR -Nw --- -Ma 0 -Md ffffffff -Ms 9 -Mt 800 -Is 9.255 -Id -1.255 -It OLSR -Il 76 -If 0 -Ii 16 -Iv 32 -P olsr -Pn 1 -Ps 1 [-Pt HELLO -Po 9 -Ph 0 -Pms 1] 
r -t 2.129651990 -Hs 5 -Hd -1 -Ni 5 -Nx 628.00 -Ny 320.00 -Nz 15.00 -Ne -1.000000 -Nl RTR -Nw --- -Ma 0 -Md ffffffff -Ms 9 -Mt 800 -Is 9.255 -Id -1.255 -It OLSR -Il 76 -If 0 -Ii 16 -Iv 32 -P olsr -Pn 1 -Ps 1 [-Pt HELLO -Po 9 -Ph 0 -Pms 1] 
r -t 2.129651998 -Hs 6 -Hd -1 -Ni 6 -Nx 570.00 -Ny 440.00 -Nz 15.00 -Ne -1.000000 -Nl RTR -Nw --- -Ma 0 -Md ffffffff -Ms 9 -Mt 800 -Is 9.255 -Id -1.255 -It OLSR -Il 76 -If 0 -Ii 16 -Iv 32 -P olsr -Pn 1 -Ps 1 [-Pt HELLO -Po 9 -Ph 0 -Pms 1] 
r -t 2.129652634 -Hs 4 -Hd -1 -Ni 4 -Nx 476.00 -Ny 200.00 -Nz 15.00 -Ne -1.000000 -Nl RTR -Nw --- -Ma 0 -Md ffffffff -Ms 9 -Mt 800 -Is 9.255 -Id -1.255 -It OLSR -Il 76 -If 0 -Ii 16 -Iv 32 -P olsr -Pn 1 -Ps 1 [-Pt HELLO -Po 9 -Ph 0 -Pms 1] 
r -t 2.129652977 -Hs 2 -Hd -1 -Ni 2 -Nx 340.00 -Ny 226.00 -Nz 15.00 -Ne -1.000000 -Nl RTR -Nw --- -Ma 0 -Md ffffffff -Ms 9 -Mt 800 -Is 9.255 -Id -1.255 -It OLSR -Il 76 -If 0 -Ii 16 -Iv 32 -P olsr -Pn 1 -Ps 1 [-Pt HELLO -Po 9 -Ph 0 -Pms 1] 
s -t 2.259434205 -Hs 3 -Hd -1 -Ni 3 -Nx 270.00 -Ny 32.00 -Nz 15.00 -Ne -1.000000 -Nl RTR -Nw --- -Ma 0 -Md 0 -Ms 0 -Mt 0 -Is 3.255 -Id -1.255 -It OLSR -Il 80 -If 0 -Ii 17 -Iv 32 -P olsr -Pn 1 -Ps 1 [-Pt HELLO -Po 3 -Ph 0 -Pms 1] 
r -t 2.260242892 -Hs 2 -Hd -1 -Ni 2 -Nx 340.00 -Ny 226.00 -Nz 15.00 -Ne -1.000000 -Nl RTR -Nw --- -Ma 0 -Md ffffffff -Ms 3 -Mt 800 -Is 3.255 -Id -1.255 -It OLSR -Il 80 -If 0 -Ii 17 -Iv 32 -P olsr -Pn 1 -Ps 1 [-Pt HELLO -Po 3 -Ph 0 -Pms 1] 